# vtk DataFile Version 4.2
vtk output
ASCII
DATASET POLYDATA
POINTS 1167 float
22 30 2.56844 23 30 2.07637 24 30 2.81913 
25 30 2.25329 26 30 2.77143 22 29.511 3 
22 29 3.63186 23 29.2025 3 23 29 3.47778 
24 29.8815 3 25 29.3346 3 25 29 3.37586 
26 29.5367 3 26 29 3.36598 21.6193 30 3 
26.514 30 3 27 30 3.1421 28 30 3.86054 
22 28.7444 4 23 28.7071 4 25 28.5206 4 
26 28.6563 4 21.7155 29 4 23.9122 29 4 
24.0514 29 4 24 29.0285 4 24 29 4.57611 
26.4073 29 4 27 29.3384 4 27 29 4.867 
28 29.8752 4 21.2352 30 4 28.1346 30 4 
19 10 5.87832 19 11 5.84449 20 11 5.5403 
21 11 5.98443 20 12 5.48327 21 12 5.83461 
22 28.893 5 23 28.6026 5 24 28.9731 5 
25 28.5624 5 26 28.5614 5 27 28.9077 5 
21.8668 29 5 22 29 5.16911 23 29 5.90302 
27.1529 29 5 27 29 5.27625 28 29.3986 5 
21.2203 30 5 28.5765 30 5 18 9 6.62951 
19 9.63673 6 19 9 6.15555 18.132 10 6 
18 10 6.01431 19.2492 10 6 20 10.3768 6 
20 10 6.31583 21 10.9812 6 21 10 6.98301 
18.7554 11 6 18 11 6.64374 19 11.8647 6 
21.0241 11 6 22 11 6.85925 19.0313 12 6 
19 12 6.02592 20 12.7488 6 21.2071 12 6 
21 12.1842 6 20 13 6.51852 21 14 6.77571 
22 14 6.57918 22 15 6.96244 24 28.7266 6 
25 28.6889 6 26 28.5921 6 22 29.4773 6 
23.1494 29 6 23 29.0639 6 24 29 6.43433 
25 29 6.45842 26.6982 29 6 26 29 6.63577 
27 29.1388 6 28 29.4656 6 21.485 30 6 
22 30 6.50988 23 30 6.50965 24 30 6.82952 
28.5601 30 6 28 30 6.78841 21 7 7.78266 
18 8.62544 7 19 8.22991 7 20 8 7.92132 
21 8 7.58633 22 8 7.73858 17.6542 9 7 
19.9497 9 7 20 9.07169 7 20 9 7.08729 
21 9.98589 7 17.2277 10 7 17 10 7.4713 
21.029 10 7 22 10.82 7 22 10 7.85042 
17.6259 11 7 17 11 7.33563 18 11.3345 7 
22.1089 11 7 22 11.2066 7 17 12 7.74337 
18.3663 12 7 18 12 7.82102 19 12.8365 7 
21.7764 12 7 21 12.9617 7 22 12 7.45124 
23 12 7.64119 24 12 7.98011 19.4324 13 7 
19 13 7.5356 20.8208 13 7 20 13.2605 7 
21 13.1891 7 21 13 7.04259 22 13.4332 7 
22 13 7.37462 23 13 7.70984 24 13 7.74673 
20.752 14 7 21 14.4814 7 22.7884 14 7 
23 14 7.15272 24 14 7.78735 21.8778 15 7 
21 15 7.21452 22.1123 15 7 22 15.0387 7 
23 15 7.26081 25 29.3661 7 26 29.2652 7 
27 29.6664 7 24.2299 30 7 25 30 7.59491 
26 30 7.53805 27.6378 30 7 27 30 7.31477 
21 6.74105 8 20.4857 7 8 20 7.75258 8 
20 7 8.17922 21.41 7 8 22 7.53562 8 
22 7 8.41491 18 8.38169 8 19.5628 8 8 
19 8.05874 8 21 8.92439 8 22.2876 8 8 
22 8.71862 8 17.3185 9 8 17 9.49487 8 
20.9373 9 8 21 9.04502 8 21 9 8.03155 
22 9.58178 8 22 9 8.08442 16.6546 10 8 
16 10 8.87043 22.0785 10 8 15 11 8.17259 
16.0265 11 8 16 11 8.01849 22.4552 11 8 
23 11.5088 8 23 11 8.9079 24 11.9771 8 
15 12 8.47565 16.5589 12 8 16 12 8.20295 
17 12.297 8 18 12.1518 8 24.0297 12 8 
16 13 8.73824 17 13 8.55886 18.806 13 8 
18 13 8.74217 19 13.1745 8 20 13.8395 8 
24.4446 13 8 25 13 8.52584 20.0946 14 8 
20 14 8.1502 24.2977 14 8 24 14.3983 8 
25 14 8.61519 20.3478 15 8 21 15.6703 8 
22 15.9339 8 23.6868 15 8 23 15.7069 8 
24 15 8.48656 21 16 8.73366 22 16 8.40116 
20 6.12965 9 21 6.02197 9 21 6 9.10742 
22 6.50841 9 22 6 9.77924 19.299 7 9 
22.3694 7 9 23 7 9.95237 18 8.82666 9 
19.0311 8 9 19 8.02334 9 19 8 9.13313 
22.7721 8 9 16 9.87138 9 17.7927 9 9 
17 9.39239 9 22.879 9 9 23 9 9.20017 
24 9 9.46516 25 9 9.72687 15.7661 10 9 
15 10.2939 9 22.6769 10 9 23 10.8686 9 
23 10 9.22166 24 10 9.22169 25 10 9.82382 
14.2646 11 9 23.1503 11 9 24 11.2002 9 
24 11 9.24855 14.4361 12 9 15 12.8831 9 
24.721 12 9 25 12.5677 9 15.2278 13 9 
15 13 9.11983 16 13.2822 9 17 13.4052 9 
18 13.2052 9 19 13.6446 9 25.2851 13 9 
25 13 9.71701 19.2896 14 9 20 14.9339 9 
25.2994 14 9 25 14.369 9 20.0421 15 9 
20 15 9.06682 23 15.577 9 23 15 9.99673 
24.3873 15 9 24 15.2813 9 20.6971 16 9 
20 16 9.34109 21 16.1452 9 22.2176 16 9 
22 16.1567 9 20 17 9.83949 21 5.68257 10 
22 5.84127 10 20.5462 6 10 20 6.31666 10 
22.2393 6 10 23 6.91603 10 23 6 10.6259 
19.344 7 10 19 7.66342 10 23.0426 7 10 
23 7.12269 10 18.7707 8 10 18 8.95905 10 
22.8294 8 10 23 8.29834 10 23 8 10.284 
24 8.4792 10 24 8 10.8456 25 8.661 10 
16 9.8812 10 17.9583 9 10 17 9.74254 10 
18 9 10.0659 25.2674 9 10 15.6722 10 10 
15 10.1296 10 16 10 10.1362 17 10 10.2695 
25.1612 10 10 25 10.2613 10 26 10 10.9519 
14.0431 11 10 17 11 10.8926 24.6625 11 10 
25 11 10.2753 26 11 10.6997 14.0791 12 10 
24.6339 12 10 25 12 10.2755 26 12 10.577 
14.499 13 10 15 13.4797 10 16 13.7398 10 
17 13.6554 10 18 13.2969 10 18 13 10.4384 
19 13.6954 10 24.9071 13 10 25 13.6956 10 
25 13 10.2377 19.1498 14 10 23 14.998 10 
25.0596 14 10 25 14.0913 10 25 14 10.0704 
19.3915 15 10 22.9981 15 10 23.0748 15 10 
24.053 15 10 24 15.0338 10 24 15 10.0412 
19.3466 16 10 19 16 10.7368 21 16.9814 10 
22.3488 16 10 22 16.3579 10 19.7501 17 10 
19 17 10.4504 20.8807 17 10 20 17.2801 10 
21 17 10.0263 20 18 10.7595 21 5.45539 11 
22 5.39647 11 23 5.74734 11 20.4533 6 11 
20 6.81586 11 20 6 11.9689 23.2544 6 11 
23 6 11.452 19.7775 7 11 19 7.56735 11 
19 7 11.3485 23.7144 7 11 24 7.82318 11 
18.6415 8 11 18 8 11.6076 24.6838 8 11 
24 8 11.6405 25 8.04227 11 25 8 11.7447 
18.3172 9 11 18 9.63618 11 25.8624 9 11 
26 9.8253 11 15 10.7036 11 16 10.9434 11 
17.7272 10 11 18 10 11.2805 26.0429 10 11 
14.6864 11 11 15 11 11.3134 16.2129 11 11 
16 11 11.0517 17.1597 11 11 17 11.2226 11 
18 11 11.5872 19 11 11.7591 20 11 11.2454 
26.2883 11 11 14.2689 12 11 15 12 11.839 
16 12 11.688 17 12 11.4016 18 12.3118 11 
18 12 11.2088 19 12 11.1543 20 12 11.191 
21 12 11.8329 26.4612 12 11 26 12.5904 11 
14.4965 13 11 15 13.5308 11 16 13.5718 11 
16 13 11.7998 17.0737 13 11 17 13.0542 11 
17 13 11.0506 18.7114 13 11 19 13.3631 11 
19 13 11.2571 20 13 11.772 25.5331 13 11 
25 13.3569 11 19.2103 14 11 23 14.7169 11 
24.1327 14 11 24 14.135 11 24 14 11.1653 
19.3527 15 11 19 15.8227 11 22.7617 15 11 
18.8592 16 11 22.5223 16 11 22 16.5954 11 
18.556 17 11 19 17.7365 11 21.6168 17 11 
21 17.6666 11 19.617 18 11 20.2448 18 11 
20 18.135 11 20 18 11.6627 20 5.97822 12 
21 5.68904 12 22 5.71119 12 19.9601 6 12 
19 6.3435 12 19 6 12.8723 21 6 12.4278 
22.5115 6 12 22 6 12.3751 23 6.29197 12 
18.1717 7 12 18 7.3054 12 18 7 12.1766 
23.4851 7 12 23 7 12.5164 25 7.97937 12 
17.6565 8 12 18 8.54809 12 23.9343 8 12 
23 8 12.7246 24.7797 8 12 24 8.04953 12 
25.0253 8 12 25 8 12.0286 18.2655 9 12 
18 9 12.5448 25.9499 9 12 26 9.13861 12 
18.9618 10 12 19 10.0709 12 19 10 12.0389 
20 10.511 12 26.4004 10 12 26 10 12.5289 
20.9588 11 12 21 11.2122 12 26.6954 11 12 
15 12.6969 12 21.0734 12 12 21 12.1767 12 
26.5906 12 12 26 12.78 12 26 12 12.9766 
14.8856 13 12 15.3446 13 12 15 13.1298 12 
15 13 12.1488 20.4152 13 12 20 13.6537 12 
21 13 12.7575 24 13.5897 12 25.7372 13 12 
25 13.442 12 19.7723 14 12 20 14 12.2284 
21 14 12.5472 22 14 12.3643 23.1496 14 12 
23 14.1224 12 23 14 12.1407 19.3902 15 12 
19 15.7341 12 20 15 12.9364 22.5341 15 12 
22 15 12.6046 18.7754 16 12 22.3371 16 12 
22 16.4653 12 22 16 12.5497 18.5142 17 12 
19 17.6541 12 20 17.964 12 21.6975 17 12 
21 17.6978 12 19 5.92116 13 20 5.98985 13 
18.8635 6 13 18 6.33409 13 18 6 13.7493 
20.0172 6 13 21 6.32051 13 22 6.88532 13 
17.2945 7 13 17 7 13.8547 21 7 13.9085 
22.0905 7 13 22 7 13.0773 17.0426 8 13 
17 8 13.1017 21 8 13.806 22.4475 8 13 
22 8 13.2546 23 8.31746 13 24 8.76034 13 
25 8.90257 13 17.7001 9 13 18 9.26647 13 
19 9.5912 13 20 9 13.8271 21 9 13.7893 
22 9 13.6977 23 9 13.5296 24 9 13.2066 
25.0697 9 13 25 9 13.0707 19.5441 10 13 
20 10.4407 13 20 10 13.4999 21 10 13.6617 
22 10 13.9945 24 10 13.9454 25.1278 10 13 
25 10 13.0917 26 10.4574 13 20.8473 11 13 
21 11.4393 13 21 11 13.1724 26.4378 11 13 
26 11.9648 13 26 11 13.462 21.0839 12 13 
25.9844 12 13 21.2264 13 13 22 13.4404 13 
22 13 13.6799 23 13.5757 13 24 13.2052 13 
25.1243 13 13 25 13.0897 13 25 13 13.2345 
21 14.6334 13 19 15.7658 13 20.1608 15 13 
20 15.051 13 21.3952 15 13 21 15 13.3204 
18.7504 16 13 21.7262 16 13 21 16 13.6437 
18.5902 17 13 19 17.3771 13 19 17 13.6395 
20 17.5942 13 20 17 13.6391 21.342 17 13 
21 17.3743 13 21 17 13.3047 18 5.87086 14 
19 5.39875 14 20 5.92484 14 17.8311 6 14 
17 6.92089 14 18 6 14.331 20.0559 6 14 
20 6 14.1671 16.9352 7 14 17 7 14.1279 
20.9044 7 14 16.5742 8 14 17 8.8639 14 
20.6772 8 14 20 8.66392 14 20 8 14.6034 
17.9607 9 14 17 9 14.871 18 9.00467 14 
18 9 14.0116 19.1107 9 14 19 9.04355 14 
19 9 14.0566 23 9.52858 14 22.0117 10 14 
22 10.0064 14 23.9407 10 14 24 10.0227 14 
25 10.7084 14 21.3617 11 14 25.3021 11 14 
25 11 14.5037 21.4073 12 14 22 12.756 14 
25.4176 12 14 25 12.662 14 22.5617 13 14 
23 13.2211 14 24.6561 13 14 24 13.4108 14 
19 15.9604 14 20 15.8251 14 18.9537 16 14 
19 16.1191 14 19 16 14.0501 20.2426 16 14 
20 16.248 14 20 16 14.1758 19 5.58728 15 
18.3698 6 15 18 6.27948 15 19.6821 6 15 
19 6 15.4505 20 6.43513 15 17.3561 7 15 
17 7.60193 15 18 7 15.5826 19 7 15.7771 
20.2835 7 15 20 7.42894 15 20 7 15.3016 
16.7377 8 15 17 8 15.3259 18 8.74734 15 
18 8 15.7412 19.5573 8 15 19 8.44048 15 
19 8 15.4629 16.9771 9 15 17.041 9 15 
17 9.0197 15 17 9 15.0241 23 9.77055 15 
22.5476 10 15 22 10.2247 15 23.5119 10 15 
23 10 15.6687 24 10.1574 15 21.3242 11 15 
24.8309 11 15 25 11.9396 15 21.5075 12 15 
22 12.5104 15 25.0219 12 15 25 12.0324 15 
22.569 13 15 22 13 15.871 23 13.3874 15 
24.5384 13 15 24 13.4882 15 22 10.3531 16 
23 10.0776 16 24 10.6242 16 21.2548 11 16 
22 11 16.9539 24.4157 11 16 24 11 16.5937 
25 11.8976 16 21.2238 12 16 21 12 16.4589 
25.0853 12 16 25 12.323 16 25 12 16.0987 
21.9074 13 16 22 13.1163 16 23 13.6946 16 
24.8939 13 16 24 13.7426 16 23 10.727 17 
21 11.4718 17 22.159 11 17 22 11.0567 17 
23.4653 11 17 23 11 17.2449 24 11.6056 17 
20.6033 12 17 21 12.4894 17 21 12 17.4181 
22 12 17.51 23 12 17.5631 24.2334 12 17 
24 12 17.1873 21.9018 13 17 22 13.0568 17 
22 13 17.0546 23 13.216 17 23 13 17.1796 
24.1187 13 17 24 13.1326 17 24 13 17.0911 
23 30 2.80421 23 29.8309 3 22.6766 30 3 
22 30 3.52898 23.2283 30 3 24 30 3.85499 
25 30 3.2753 26 30 3.56174 27 30 3.91972 
22 29.5942 4 23 29.4027 4 24 29.8702 4 
25 29.3618 4 26 29.4931 4 27 29.9381 4 
21.7447 30 4 27.1045 30 4 22 29.7357 5 
[...]
POINT_DATA 1167
SCALARS scalar float
LOOKUP_TABLE default
218.601 218.601 218.601 218.601 218.601 218.601 218.601 218.601 218.601 
218.601 218.601 218.601 218.601 218.601 218.601 218.601 218.601 218.601 
218.601 218.601 218.601 218.601 218.601 218.601 218.601 218.601 218.601 
218.601 218.601 218.601 218.601 218.601 218.601 218.601 218.601 218.601 
218.601 218.601 218.601 218.601 218.601 218.601 218.601 218.601 218.601 
218.601 218.601 218.601 218.601 218.601 218.601 218.601 218.601 218.601 
218.601 218.601 218.601 218.601 218.601 218.601 218.601 218.601 218.601 
218.601 218.601 218.601 218.601 218.601 218.601 218.601 218.601 218.601 
218.601 218.601 218.601 218.601 218.601 218.601 218.601 218.601 218.601 
218.601 218.601 218.601 218.601 218.601 218.601 218.601 218.601 218.601 
218.601 218.601 218.601 218.601 218.601 218.601 218.601 218.601 218.601 
218.601 218.601 218.601 218.601 218.601 218.601 218.601 218.601 218.601 
218.601 218.601 218.601 218.601 218.601 218.601 218.601 218.601 218.601 
218.601 218.601 218.601 218.601 218.601 218.601 218.601 218.601 218.601 
218.601 218.601 218.601 218.601 218.601 218.601 218.601 218.601 218.601 
218.601 218.601 218.601 218.601 218.601 218.601 218.601 218.601 218.601 
218.601 218.601 218.601 218.601 218.601 218.601 218.601 218.601 218.601 
218.601 218.601 218.601 218.601 218.601 218.601 218.601 218.601 218.601 
218.601 218.601 218.601 218.601 218.601 218.601 218.601 218.601 218.601 
218.601 218.601 218.601 218.601 218.601 218.601 218.601 218.601 218.601 
218.601 218.601 218.601 218.601 218.601 218.601 218.601 218.601 218.601 
218.601 218.601 218.601 218.601 218.601 218.601 218.601 218.601 218.601 
218.601 218.601 218.601 218.601 218.601 218.601 218.601 218.601 218.601 
218.601 218.601 218.601 218.601 218.601 218.601 218.601 218.601 218.601 
218.601 218.601 218.601 218.601 218.601 218.601 218.601 218.601 218.601 
218.601 218.601 218.601 218.601 218.601 218.601 218.601 218.601 218.601 
218.601 218.601 218.601 218.601 218.601 218.601 218.601 218.601 218.601 
218.601 218.601 218.601 218.601 218.601 218.601 218.601 218.601 218.601 
218.601 218.601 218.601 218.601 218.601 218.601 218.601 218.601 218.601 
218.601 218.601 218.601 218.601 218.601 218.601 218.601 218.601 218.601 
218.601 218.601 218.601 218.601 218.601 218.601 218.601 218.601 218.601 
218.601 218.601 218.601 218.601 218.601 218.601 218.601 218.601 218.601 
218.601 218.601 218.601 218.601 218.601 218.601 218.601 218.601 218.601 
218.601 218.601 218.601 218.601 218.601 218.601 218.601 218.601 218.601 
218.601 218.601 218.601 218.601 218.601 218.601 218.601 218.601 218.601 
218.601 218.601 218.601 218.601 218.601 218.601 218.601 218.601 218.601 
218.601 218.601 218.601 218.601 218.601 218.601 218.601 218.601 218.601 
218.601 218.601 218.601 218.601 218.601 218.601 218.601 218.601 218.601 
218.601 218.601 218.601 218.601 218.601 218.601 218.601 218.601 218.601 
218.601 218.601 218.601 218.601 218.601 218.601 218.601 218.601 218.601 
218.601 218.601 218.601 218.601 218.601 218.601 218.601 218.601 218.601 
218.601 218.601 218.601 218.601 218.601 218.601 218.601 218.601 218.601 
218.601 218.601 218.601 218.601 218.601 218.601 218.601 218.601 218.601 
218.601 218.601 218.601 218.601 218.601 218.601 218.601 218.601 218.601 
218.601 218.601 218.601 218.601 218.601 218.601 218.601 218.601 218.601 
218.601 218.601 218.601 218.601 218.601 218.601 218.601 218.601 218.601 
218.601 218.601 218.601 218.601 218.601 218.601 218.601 218.601 218.601 
218.601 218.601 218.601 218.601 218.601 218.601 218.601 218.601 218.601 
218.601 218.601 218.601 218.601 218.601 218.601 218.601 218.601 218.601 
218.601 218.601 218.601 218.601 218.601 218.601 218.601 218.601 218.601 
218.601 218.601 218.601 218.601 218.601 218.601 218.601 218.601 218.601 
218.601 218.601 218.601 218.601 218.601 218.601 218.601 218.601 218.601 
218.601 218.601 218.601 218.601 218.601 218.601 218.601 218.601 218.601 
218.601 218.601 218.601 218.601 218.601 218.601 218.601 218.601 218.601 
218.601 218.601 218.601 218.601 218.601 218.601 218.601 218.601 218.601 
218.601 218.601 218.601 218.601 218.601 218.601 218.601 218.601 218.601 
218.601 218.601 218.601 218.601 218.601 218.601 218.601 218.601 218.601 
218.601 218.601 218.601 218.601 218.601 218.601 218.601 218.601 218.601 
218.601 218.601 218.601 218.601 218.601 218.601 218.601 218.601 218.601 
218.601 218.601 218.601 218.601 218.601 218.601 218.601 218.601 218.601 
218.601 218.601 218.601 218.601 218.601 218.601 218.601 218.601 218.601 
218.601 218.601 218.601 218.601 218.601 218.601 218.601 218.601 218.601 
218.601 218.601 218.601 218.601 218.601 218.601 218.601 218.601 218.601 
218.601 218.601 218.601 218.601 218.601 218.601 218.601 218.601 218.601 
218.601 218.601 218.601 218.601 218.601 218.601 218.601 218.601 218.601 
218.601 218.601 218.601 218.601 218.601 218.601 218.601 218.601 218.601 
218.601 218.601 218.601 218.601 218.601 218.601 218.601 218.601 218.601 
218.601 218.601 218.601 218.601 218.601 218.601 218.601 218.601 218.601 
218.601 218.601 218.601 218.601 218.601 218.601 218.601 218.601 218.601 
218.601 218.601 218.601 218.601 218.601 218.601 218.601 218.601 218.601 
218.601 218.601 218.601 218.601 218.601 218.601 218.601 218.601 218.601 
218.601 218.601 218.601 218.601 218.601 218.601 218.601 218.601 218.601 
218.601 218.601 218.601 218.601 218.601 218.601 218.601 218.601 218.601 
218.601 218.601 218.601 218.601 218.601 218.601 218.601 218.601 218.601 
218.601 218.601 218.601 218.601 218.601 218.601 218.601 218.601 218.601 
218.601 218.601 218.601 218.601 218.601 218.601 218.601 218.601 218.601 
218.601 218.601 218.601 218.601 218.601 218.601 218.601 218.601 218.601 
218.601 218.601 218.601 218.601 218.601 218.601 487.306 487.306 487.306 
487.306 487.306 487.306 487.306 487.306 487.306 487.306 487.306 487.306 
487.306 487.306 487.306 487.306 487.306 487.306 487.306 487.306 487.306 
487.306 487.306 487.306 487.306 487.306 487.306 487.306 487.306 487.306 
487.306 487.306 487.306 487.306 487.306 487.306 487.306 487.306 487.306 
487.306 487.306 487.306 487.306 487.306 487.306 487.306 487.306 487.306 
487.306 487.306 487.306 487.306 487.306 487.306 487.306 487.306 487.306 
487.306 487.306 487.306 487.306 487.306 487.306 487.306 487.306 487.306 
487.306 487.306 487.306 487.306 487.306 487.306 487.306 487.306 487.306 
487.306 487.306 487.306 487.306 487.306 487.306 487.306 487.306 487.306 
487.306 487.306 487.306 487.306 487.306 487.306 487.306 487.306 487.306 
487.306 487.306 487.306 487.306 487.306 487.306 487.306 487.306 487.306 
487.306 487.306 487.306 487.306 487.306 487.306 487.306 487.306 487.306 
487.306 487.306 487.306 487.306 487.306 487.306 487.306 487.306 487.306 
487.306 487.306 487.306 487.306 487.306 487.306 487.306 487.306 487.306 
487.306 487.306 487.306 487.306 487.306 487.306 487.306 487.306 487.306 
487.306 487.306 487.306 487.306 487.306 487.306 487.306 487.306 487.306 
487.306 487.306 487.306 487.306 487.306 487.306 487.306 487.306 487.306 
487.306 487.306 487.306 487.306 487.306 487.306 487.306 487.306 487.306 
487.306 487.306 487.306 487.306 487.306 487.306 487.306 487.306 487.306 
487.306 487.306 487.306 487.306 487.306 487.306 487.306 487.306 487.306 
487.306 487.306 487.306 487.306 487.306 487.306 487.306 487.306 487.306 
487.306 487.306 487.306 487.306 487.306 487.306 487.306 487.306 487.306 
487.306 487.306 487.306 487.306 487.306 487.306 487.306 487.306 487.306 
487.306 487.306 487.306 487.306 487.306 487.306 487.306 487.306 487.306 
487.306 487.306 487.306 487.306 487.306 487.306 487.306 487.306 487.306 
487.306 487.306 487.306 487.306 487.306 487.306 487.306 487.306 487.306 
487.306 487.306 487.306 487.306 487.306 487.306 487.306 487.306 487.306 
487.306 487.306 487.306 487.306 487.306 487.306 487.306 487.306 487.306 
487.306 487.306 487.306 487.306 487.306 487.306 487.306 487.306 487.306 
487.306 487.306 487.306 487.306 487.306 487.306 487.306 487.306 487.306 
487.306 487.306 487.306 487.306 487.306 487.306 487.306 487.306 487.306 
487.306 487.306 487.306 487.306 487.306 487.306 487.306 487.306 487.306 
487.306 487.306 487.306 487.306 487.306 487.306 487.306 487.306 487.306 
487.306 487.306 487.306 487.306 487.306 487.306 487.306 487.306 487.306 
487.306 487.306 487.306 487.306 487.306 487.306 487.306 487.306 487.306 
487.306 487.306 487.306 487.306 487.306 487.306 487.306 487.306 487.306 
487.306 487.306 487.306 487.306 487.306 487.306 487.306 487.306 487.306 
487.306 487.306 487.306 487.306 487.306 487.306 487.306 487.306 487.306 
487.306 487.306 487.306 487.306 487.306 487.306 487.306 487.306 487.306 
487.306 487.306 487.306 487.306 487.306 487.306 487.306 487.306 487.306 
487.306 487.306 487.306 487.306 487.306 487.306 487.306 487.306 487.306 
487.306 487.306 487.306 487.306 487.306 487.306 487.306 487.306 487.306 
487.306 487.306 487.306 487.306 487.306 487.306 487.306 487.306 487.306 
487.306 487.306 487.306 487.306 487.306 487.306 487.306 487.306 487.306 
487.306 487.306 487.306 487.306 487.306 487.306 487.306 487.306 487.306 
487.306 487.306 487.306 487.306 487.306 487.306 487.306 487.306 487.306 
487.306 487.306 487.306 487.306 487.306 487.306 487.306 487.306 487.306 
487.306 487.306 487.306 487.306 487.306 487.306 487.306 487.306 487.306 
487.306 487.306 487.306 487.306 487.306 487.306 487.306 487.306 487.306 
487.306 487.306 487.306 487.306 487.306 487.306 487.306 487.306 487.306 
487.306 487.306 487.306 487.306 487.306 487.306 487.306 487.306 487.306 
487.306 487.306 487.306 487.306 487.306 756.011 
NORMALS Normals float
-0.563853 -0.472498 -0.677359 -0.0487057 -0.576224 -0.815839 0.219592 -0.682914 -0.696712 
0.0725802 -0.649622 -0.756785 0.367977 -0.310738 -0.876376 -0.490704 -0.610637 -0.621556 
-0.370893 -0.865683 -0.3362 0.0901052 -0.86632 -0.491294 0.0966691 -0.923605 -0.370957 
0.218989 -0.685005 -0.694847 -0.136511 -0.7471 -0.650544 -0.190089 -0.816089 -0.54577 
0.32382 -0.431489 -0.841996 0.350601 -0.766826 -0.53764 -0.678217 -0.468198 -0.566402 
0.36793 -0.405256 -0.836896 0.380994 -0.570546 -0.727545 0.621869 -0.598986 -0.504474 
-0.351395 -0.916284 -0.192213 0.0928047 -0.96334 -0.251721 -0.127864 -0.952671 -0.275807 
0.377429 -0.891795 -0.249499 -0.504187 -0.837813 -0.209439 -0.102471 -0.939801 -0.325995 
-0.131747 -0.933098 -0.334621 -0.120851 -0.93241 -0.340599 -0.0762622 -0.975595 -0.205907 
0.453319 -0.833604 -0.315603 0.436925 -0.807092 -0.397113 0.404234 -0.901983 -0.151726 
0.605669 -0.637135 -0.47668 -0.918738 -0.350536 -0.181782 0.639096 -0.603401 -0.476931 
0.122818 -0.131747 -0.983645 -0.405525 0.0519451 -0.912607 0.0549015 -0.331946 -0.941699 
0.453713 -0.35229 -0.818558 -0.046145 0.204015 -0.97788 0.501498 0.260894 -0.824884 
-0.440219 -0.848126 0.29477 0.0262588 -0.992349 0.120641 -0.0430804 -0.9908 -0.128292 
-0.183296 -0.977419 0.10514 0.158262 -0.986844 -0.0330459 0.380645 -0.916975 -0.119437 
-0.480587 -0.825949 0.294695 -0.447354 -0.832897 0.325817 -0.335308 -0.786913 0.518013 
0.402601 -0.907355 -0.120911 0.410559 -0.911761 -0.0115287 0.592177 -0.792296 -0.146944 
-0.897659 -0.426874 0.109484 0.793029 -0.588701 -0.15664 -0.569647 -0.6002 -0.561482 
0.0793802 -0.234137 -0.968957 0.00547603 -0.502102 -0.864791 -0.30404 -0.0741803 -0.949767 
-0.382426 -0.0599862 -0.922037 0.192131 -0.22663 -0.954843 0.262997 -0.499825 -0.825232 
0.476873 -0.544741 -0.689818 0.454342 -0.356564 -0.816355 0.412864 -0.718349 -0.559927 
-0.463251 0.129016 -0.876786 -0.599864 0.54312 -0.587523 -0.606406 0.236963 -0.759026 
0.457367 -0.351735 -0.816761 0.882524 -0.0462589 -0.467986 -0.615361 0.26798 -0.741295 
-0.638973 0.274523 -0.718575 0.0703479 0.718181 -0.692291 0.566143 0.290413 -0.771455 
0.526851 0.32665 -0.784683 0.0234654 0.897642 -0.440101 -0.438063 0.0733728 -0.895945 
0.116364 -0.147595 -0.982179 0.00920945 0.51261 -0.858572 -0.179063 -0.970481 0.161567 
-0.0708402 -0.942471 0.326696 0.162933 -0.952269 0.258142 -0.413025 -0.724767 0.551473 
-0.356212 -0.784291 0.507937 -0.361382 -0.730492 0.579469 -0.225799 -0.864644 0.448782 
-0.0649517 -0.879464 0.471512 0.374983 -0.876148 0.302908 0.15597 -0.852868 0.498286 
0.411252 -0.85926 0.304211 0.493486 -0.835533 0.241572 -0.603674 -0.61049 0.512717 
-0.310425 -0.611579 0.727742 -0.20572 -0.35034 0.913751 -0.585661 -0.218211 0.780631 
0.741193 -0.621788 0.253009 0.551155 -0.616813 0.561934 0.0439534 -0.397284 -0.916643 
-0.56896 -0.693122 -0.442568 0.108971 -0.900448 -0.421093 -0.2618 -0.414794 -0.871439 
-0.0639379 0.0999779 -0.992933 0.48016 -0.090596 -0.87249 -0.667227 -0.576255 -0.471951 
0.700387 -0.570272 -0.42924 0.711926 -0.55565 -0.429435 0.710756 -0.552218 -0.435753 
0.414139 -0.718014 -0.559415 -0.862177 -0.0662592 -0.502255 -0.854547 -0.271857 -0.442542 
0.415023 -0.71704 -0.560008 0.873384 -0.109109 -0.474653 0.808146 -0.272495 -0.522156 
-0.592932 0.470212 -0.653707 -0.514166 0.135027 -0.846995 -0.647536 0.548371 -0.529137 
0.900325 -0.0310741 -0.434108 0.896313 0.023745 -0.442785 -0.166023 0.478853 -0.862053 
-0.779774 0.50709 -0.367168 -0.320839 0.678097 -0.661247 -0.55666 0.770843 -0.309728 
0.851762 0.277432 -0.444448 0.319226 0.474029 -0.820604 0.7246 0.0656693 -0.686034 
0.222073 -0.254628 -0.941195 0.421357 -0.420333 -0.803603 -0.271111 0.894502 -0.355479 
-0.561287 0.757789 -0.332735 0.231506 0.590518 -0.773106 -0.152494 0.899632 -0.409156 
0.140493 0.413486 -0.899606 0.285277 0.45266 -0.844817 0.242404 -0.322784 -0.914905 
0.331984 -0.485587 -0.808698 0.20473 -0.223574 -0.952943 0.230558 -0.0685264 -0.970643 
-0.523184 0.180479 -0.83289 -0.454995 0.254059 -0.853483 0.52018 -0.208776 -0.828146 
0.627026 -0.206839 -0.751037 0.487285 0.19634 -0.850884 -0.0335308 0.517454 -0.855054 
-0.466255 0.519447 -0.716088 0.0474508 0.504332 -0.862205 0.00747949 0.522218 -0.85278 
0.572317 0.367741 -0.732953 -0.171141 -0.757392 0.630134 0.114484 -0.741056 0.661612 
0.335184 -0.688494 0.643139 -0.550386 -0.311063 0.7748 -0.193253 -0.590244 0.783751 
0.137286 -0.477101 0.86806 0.442233 -0.588141 0.677141 0.298207 -0.596159 0.745431 
0.055283 -0.482646 -0.874069 -0.188359 -0.390198 -0.901258 -0.329812 -0.382554 -0.863062 
-0.537642 -0.360656 -0.762147 0.22453 -0.475558 -0.850548 0.555405 -0.29274 -0.77835 
0.658829 -0.506643 -0.556109 -0.523769 -0.849572 0.0623951 -0.314742 -0.732769 -0.603314 
-0.250531 -0.958395 -0.136796 0.283565 -0.140727 -0.948571 0.614377 -0.103605 -0.782181 
0.392497 0.0386888 -0.918939 -0.733879 -0.679251 -0.00631783 -0.813804 -0.515472 -0.26835 
0.333162 -0.185676 -0.924407 0.32545 -0.187233 -0.926837 0.312581 -0.152794 -0.937522 
0.670661 -0.102729 -0.734616 0.359747 0.102921 -0.927356 -0.776204 -0.432604 -0.458651 
-0.509457 -0.774117 -0.37576 0.83373 -0.229447 -0.502243 -0.440306 -0.163509 -0.882834 
-0.448792 -0.184668 -0.874348 -0.448169 -0.198242 -0.871691 0.81947 -0.403899 -0.406613 
0.37939 -0.521986 -0.763933 0.4477 -0.648827 -0.615296 0.422103 -0.427056 -0.799658 
-0.504839 0.348647 -0.789673 -0.228037 0.43441 -0.871371 -0.362009 0.331867 -0.871099 
-0.140302 0.528935 -0.836985 -0.25922 0.686393 -0.679462 0.428325 -0.423316 -0.798337 
-0.189153 0.656971 -0.729801 -0.0165625 0.779214 -0.62654 -0.60234 0.694772 -0.393037 
-0.146035 0.873788 -0.463861 -0.612971 0.70704 -0.352649 -0.703034 0.467084 -0.53626 
0.398353 -0.058655 -0.915355 0.919781 -0.196848 -0.339491 -0.748334 0.402572 -0.527193 
-0.731164 0.449584 -0.513102 0.518533 0.226775 -0.824437 0.562566 0.316925 -0.763595 
0.867965 0.326612 -0.374113 -0.758133 0.454765 -0.467358 -0.439174 0.750451 -0.493913 
-0.0424213 0.911498 -0.409111 0.7097 0.488906 -0.507245 0.56691 0.792718 -0.22408 
0.589091 0.736612 -0.332227 -0.205027 0.821329 -0.532336 0.0867514 0.944086 -0.31808 
-0.457001 -0.872069 -0.17506 0.119641 -0.928788 -0.350769 0.0865128 -0.934811 -0.344446 
0.654901 -0.58277 -0.481127 0.334071 -0.775179 -0.536185 -0.881868 -0.403548 -0.243842 
0.752193 -0.44906 -0.482236 0.710163 -0.0583807 -0.701613 -0.6351 -0.726111 0.263458 
-0.69808 -0.703291 -0.13441 -0.68955 -0.714601 -0.117757 -0.701039 -0.702373 -0.123356 
0.920644 -0.29284 -0.258183 -0.481644 -0.811524 -0.330828 -0.613665 -0.746415 0.25745 
-0.478331 -0.871684 0.106615 0.766995 0.0189372 -0.641374 0.730421 -0.133908 -0.669742 
0.222009 -0.524001 -0.822275 0.531119 -0.25966 -0.806529 -0.478707 -0.81359 -0.330017 
-0.523655 -0.744099 -0.414852 0.574121 -0.0275094 -0.818308 0.446468 -0.593429 -0.669708 
0.372512 -0.135031 -0.918151 0.234138 -0.124217 -0.964235 0.67524 0.226164 -0.702069 
-0.8493 -0.24307 -0.468622 0.42896 -0.642217 -0.635256 0.444882 -0.664444 -0.600495 
0.479583 -0.450118 -0.753256 -0.722807 0.317697 -0.613693 -0.506369 0.57448 -0.643089 
0.808649 -0.57584 -0.120393 0.929729 -0.362163 -0.0666537 -0.410287 0.63923 -0.650423 
-0.512155 0.64017 -0.572608 -0.174436 0.733247 -0.657207 0.0393937 0.876725 -0.479376 
-0.0947896 0.922399 -0.374427 -0.715123 0.671264 -0.194947 0.965207 -0.248819 -0.0804073 
0.963642 -0.261453 -0.0551108 -0.725915 0.613296 -0.311312 -0.768516 0.439672 -0.464835 
0.935996 0.292397 -0.196001 0.866566 0.454423 -0.206309 -0.771524 0.438123 -0.461302 
-0.783152 0.418897 -0.459563 0.487063 0.841252 0.234657 0.491181 0.748585 0.445378 
0.525276 0.84022 -0.134594 0.436296 0.892954 -0.11081 -0.258379 0.745655 -0.614197 
-0.541642 0.35526 -0.761849 -0.166074 0.810662 -0.561469 0.337122 0.933535 -0.121905 
0.264757 0.945838 -0.187866 -0.154086 0.399687 -0.903608 -0.199729 -0.934613 -0.29429 
0.293482 -0.795026 -0.53085 -0.363585 -0.926597 -0.0960454 -0.60941 -0.752869 0.248613 
0.356117 -0.738392 -0.572676 0.703581 -0.0737916 -0.706773 0.62987 -0.739708 -0.236844 
-0.80866 -0.570414 0.143862 -0.786224 -0.610717 -0.0942179 0.711619 -0.0529487 -0.700567 
0.726174 -0.0720042 -0.68373 -0.753891 -0.644635 -0.126862 -0.712306 -0.674475 0.194173 
0.867742 -0.253247 -0.427656 0.742856 -0.383093 -0.549003 0.846599 -0.223757 -0.48291 
0.139348 -0.748513 -0.648313 0.325228 -0.899341 -0.292254 0.502969 -0.412888 -0.759306 
-0.196096 -0.925062 0.325279 -0.708961 -0.676451 0.199471 -0.444153 -0.738929 0.506668 
-0.720617 -0.664288 0.198575 0.624953 -0.243999 -0.741551 -0.240471 -0.934916 0.26097 
-0.359205 -0.925127 0.122935 -0.180936 -0.908828 0.37589 -0.447428 -0.682467 0.577968 
0.696779 0.218882 -0.683074 0.672962 0.240588 -0.699457 0.836679 -0.190372 -0.513543 
-0.956618 -0.266518 0.117688 -0.285037 -0.472121 0.83418 0.629761 0.214619 -0.746552 
0.591538 0.181924 -0.785485 0.646875 -0.155144 -0.746648 -0.969378 0.239261 -0.0553236 
0.792769 -0.154949 -0.589497 0.608662 -0.00842519 -0.793385 0.62497 0.21144 -0.751469 
-0.730296 0.652569 -0.202044 -0.510427 0.83461 -0.207101 -0.0939323 0.98759 -0.12587 
0.288976 0.954795 0.0697144 0.115973 0.961861 0.247738 0.094032 0.883254 0.459369 
-0.854034 0.517174 0.0561922 0.967168 -0.254107 0.00400029 0.947246 0.0582387 0.315171 
0.9901 0.0351911 -0.135883 -0.90241 0.43003 -0.0270142 0.490863 0.7485 0.445871 
0.88994 0.16796 0.424023 0.884266 0.200904 0.421559 0.87751 0.198809 0.436406 
-0.945726 0.170583 -0.276595 0.49207 0.747959 0.445448 0.47251 0.760142 0.446003 
0.231009 0.876127 0.423126 0.218098 0.879624 0.422724 0.220025 0.87325 0.434769 
-0.753304 0.0975015 -0.650405 -0.888859 -0.365433 -0.276384 0.318869 0.65157 -0.688316 
0.719071 0.678476 -0.150356 0.649817 0.728284 -0.21758 -0.243513 0.371136 -0.89608 
-0.768743 0.183341 -0.612716 0.263533 0.628559 -0.731754 -0.180107 0.448156 -0.875624 
0.335523 0.653084 -0.6789 0.0290205 0.973324 -0.22759 -0.420682 -0.907004 0.0192166 
0.131935 -0.991195 -0.0111898 0.577797 -0.815417 -0.0352996 -0.693124 -0.712545 -0.108894 
-0.724934 -0.657968 -0.203836 -0.343042 -0.906385 -0.246553 0.673373 -0.738222 -0.0399659 
0.594153 -0.783834 0.180516 -0.684609 -0.6709 -0.284962 -0.627845 -0.546899 -0.553816 
-0.470712 -0.590003 -0.655993 0.944224 -0.310455 -0.109812 0.485304 -0.845005 -0.224605 
-0.713372 -0.445807 -0.5407 -0.741157 -0.0206245 -0.671014 0.37426 -0.894969 -0.242815 