# vtk DataFile Version 4.2
vtk output
ASCII
DATASET STRUCTURED_POINTS
DIMENSIONS 30 30 30
SPACING 1 1 1
ORIGIN 1 1 1
POINT_DATA 27000
SCALARS scalar float
LOOKUP_TABLE default
0 0 0 0 0 0 0 0 0 
0 0 0 0 0 0 0 0 0 
0 0 0 0 0 0 0 0 0 
0 0 0 0 0 0 0 0 0 
0 0 0 0 0 0 0 0 0 
8.10174e-08 -1.13272e-06 -4.47379e-07 0 0 0 0 0 0 
0 0 0 0 0 0 0 0 0 
0 0 0 0 0 0 0 0 0 
0 0 7.50389e-08 6.81425e-08 -2.18568e-06 -2.25102e-07 6.9993e-07 0 0 
0 0 0 0 0 0 0 0 0 
0 0 0 0 0 0 0 0 0 
0 0 0 -6.01672e-08 -8.30136e-08 8.93427e-07 1.19344e-06 1.42567e-05 -9.03355e-06 
-1.01458e-05 0 0 0 0 0 0 0 0 
0 0 0 0 0 0 0 0 0 
0 0 0 0 0 -7.33498e-08 -4.82554e-10 1.21587e-06 -1.05345e-06 
1.05271e-06 7.49238e-06 -9.415e-05 -0.000122357 5.85881e-05 0 0 0 0 
0 0 0 0 0 0 0 0 0 
0 0 0 0 0 0 0 1.64414e-08 -1.72182e-07 
-1.68381e-07 -4.49695e-06 -1.00497e-07 3.78598e-05 -9.49963e-08 9.21882e-05 -3.31862e-05 0.000404508 2.64529e-05 
0 0 0 0 0 0 0 0 0 
0 0 0 0 0 0 0 0 0 
0 0 4.0776e-07 -1.42235e-06 -3.5418e-06 2.68396e-05 -2.08293e-05 -6.01742e-05 0.000240864 
-0.000451031 -0.00285154 -0.00139213 0 0 0 0 0 0 
0 0 0 0 0 0 0 0 0 
0 0 0 0 0 -2.66564e-10 -8.20228e-06 -1.85276e-06 -1.77464e-05 
4.73862e-05 0.000479288 0.000175916 0.000597461 -0.00702498 0.0147828 -0.00824237 0 0 
0 0 0 0 0 0 0 0 0 
0 0 0 0 0 0 0 0 0 
4.98713e-06 4.8011e-06 -5.59331e-05 5.49425e-05 2.39728e-08 0.00216967 -6.27689e-05 -0.00387395 -0.000120139 
-0.00619125 -6.98169e-06 0 0 0 0 0 0 0 
0 0 0 0 0 0 0 0 0 
0 0 0 0 -9.14338e-05 -0.000162246 0.000198551 0.00613896 0.006282 
0.00401746 -0.00138023 -0.00824467 -0.00686992 -0.0583907 0 0 0 0 
0 0 0 0 0 0 0 0 0 
0 0 0 0 0 0 0 3.81999e-06 -0.000678589 
0.00192452 0.00356791 0.000756139 0.000494605 -0.00203077 0.000335185 0.0244948 -0.0458933 0.00225998 
0 0 0 0 0 0 0 0 0 
0 0 0 0 0 0 0 0 0 
0 0 -0.00107144 -6.96716e-05 0.000942142 0.0029555 3.86336e-05 -0.00837403 -0.00201303 
0.00334903 0.000369959 0.014132 0 0 0 0 0 0 
0 0 0 0 0 0 0 0 0 
0 0 0 0 0 0 0.000294275 0.00299045 0.000676916 
-0.00996976 -0.00538557 -0.000422198 -0.00166033 0.00659577 -0.0014707 0.00515686 0 0 
0 0 0 0 0 0 0 0 0 
0 0 0 0 0 0 0 0 0 
0.000490427 0.0015311 0.000481455 -0.00203183 -0.000169255 -0.00378668 0.00152879 -0.00231104 0.000815696 
-0.000624971 2.07522e-05 0 0 0 0 0 0 0 
0 0 0 0 0 0 0 0 0 
0 0 0 0 0.00127278 -6.99206e-05 0.000369176 -0.00370173 -0.000185431 
-0.00176493 -2.68013e-05 -0.000311937 1.59719e-05 0.000311208 0 0 0 0 
0 0 0 0 0 0 0 0 0 
0 0 0 0 0 0 0 0 0.000849254 
-0.000848032 0.000218535 -0.000514388 0.000267577 9.99482e-06 -8.49493e-05 8.3751e-05 -1.51334e-05 -1.29688e-05 
0 0 0 0 0 0 0 0 0 
0 0 0 0 0 0 0 0 0 
0 0 7.95252e-05 0.000247319 1.76676e-05 0.000231189 3.21638e-06 -0.000114184 -1.7167e-06 
1.25207e-05 2.49115e-06 1.34502e-05 3.09612e-08 0 0 0 0 0 
0 0 0 0 0 0 0 0 0 
0 0 0 0 0 0 -6.58193e-05 2.17754e-05 2.02853e-05 
-3.66508e-05 3.30803e-06 5.03335e-06 -3.53131e-06 5.19555e-07 3.94139e-07 3.15154e-07 0 0 
0 0 0 0 0 0 0 0 0 
0 0 0 0 0 0 0 0 0 
0 2.15749e-05 2.35851e-06 4.58574e-07 -3.01749e-06 -3.4083e-06 -2.47801e-07 7.83385e-07 6.49589e-07 
3.54738e-08 0 0 0 0 0 0 0 0 
0 0 0 0 0 0 0 0 0 
0 0 0 0 -9.83932e-07 -3.62304e-07 4.82596e-07 1.13086e-07 7.29215e-08 
-2.74555e-07 6.10163e-08 0 0 0 0 0 0 0 
0 0 0 0 0 0 0 0 0 
0 0 0 3.08001e-10 1.90942e-10 1.78567e-09 -2.44917e-08 -2.0622e-09 -7.9782e-07 
-1.19219e-05 1.42089e-07 -1.3297e-05 -8.0459e-06 -2.26663e-08 3.74908e-06 1.77058e-06 0 0 
0 0 0 0 0 0 0 0 0 
0 0 0 0 -1.20743e-10 2.96368e-10 -1.08874e-09 1.4424e-08 -6.39261e-09 
3.22917e-08 -2.83034e-08 -3.48947e-07 3.44275e-05 8.80228e-05 -3.00557e-05 3.37068e-05 1.32812e-05 1.06765e-05 
-1.38175e-05 2.90407e-07 -4.6291e-07 0 0 0 0 0 0 
0 0 0 0 0 0 0 -1.65031e-10 -4.51224e-09 
5.6687e-10 2.18112e-09 5.76243e-08 -8.7158e-09 7.49048e-08 -8.54998e-06 0.00022914 6.30571e-05 -3.68087e-05 
0.000402792 2.48494e-05 -2.42646e-05 -0.000226749 -5.08178e-06 5.68101e-06 0 0 0 
0 0 0 0 0 0 0 0 0 
0 8.79127e-10 -2.14906e-08 -1.10923e-08 -6.52219e-08 -8.71148e-08 -1.22648e-07 -8.94239e-06 -2.38924e-05 
-0.000140722 -0.00423015 -0.00175157 -0.000652344 -0.00202611 1.77648e-05 0.000409252 0.00051247 3.85415e-05 
0 0 0 0 0 0 0 0 0 
0 0 0 0 -1.90188e-08 -3.71453e-08 -7.7943e-08 1.641e-08 2.15219e-06 
-9.15471e-06 -6.48803e-06 -7.07939e-06 0.00185731 -0.00434914 0.0194798 -0.00147998 -0.00299637 -0.000397875 
0.0103905 0.00241194 0.00030813 0 0 0 0 0 0 
0 0 0 0 0 0 0 1.47534e-07 1.53758e-07 
1.34803e-06 5.3897e-07 1.49255e-05 1.17648e-05 -2.52922e-07 -0.000328239 -0.00456967 0.0458227 0.174876 
-0.0261455 0.133982 0.064638 -0.00382196 -0.0407173 -0.00737702 0 0 0 
0 0 0 0 0 0 0 0 0 
0 -2.37825e-10 -4.20472e-07 -3.56527e-05 9.39092e-05 3.12874e-05 0.0002956 -0.000241145 0.000263809 
-0.130217 -0.193395 0.255216 -0.347233 -0.163611 -0.211517 0.582893 0.119061 -0.0483228 
0 0 0 0 0 0 0 0 0 
0 0 0 0 0 -1.00271e-05 5.22517e-05 -0.000781009 0.000578693 
0.00225378 -0.00136831 -0.018574 -0.0466335 1.96192 2.28312 -0.0923373 0.999445 1.59295 
-0.0625972 0.0381705 0.216909 0 0 0 0 0 0 
0 0 0 0 0 0 0 0 0.000261685 
3.50343e-05 -0.000620254 0.00193296 -0.0038439 -0.087873 0.00359779 -0.244723 -6.48175 4.67222 
-4.27659 -1.85117 0.161013 1.5576 -0.464461 0.231094 0 0 0 
0 0 0 0 0 0 0 0 0 
0 0 -0.0016164 0.00570525 -0.00489623 -0.00235278 0.146765 -0.667286 1.08071 
-0.211388 -11.4533 11.627 13.236 -23.1603 -7.48688 0.0843364 -1.02296 -0.245952 
0 0 0 0 0 0 0 0 0 
0 0 0 0 0 0 0 0 4.84224e-07 
2.57495e-07 0 0 0 0 0 0 0 0 
0 0 0 0 0 0 0 0 0 
0 0 0 0 0 0 0 0 0 
-7.86375e-08 -3.23272e-06 7.81484e-07 -3.24161e-06 2.29424e-07 0 0 0 0 
0 0 0 0 0 0 0 0 0 
0 0 0 0 0 0 0 0 0 
0 0 2.00807e-07 -5.21661e-06 -9.36294e-06 -1.90044e-06 1.48833e-05 -7.14675e-06 0 
0 0 0 0 0 0 0 0 0 
0 0 0 0 0 0 0 0 0 
0 0 0 -1.32041e-08 2.75802e-06 5.15851e-06 1.61003e-05 -8.91637e-05 -7.32995e-07 
0.000148136 -1.96064e-05 7.79721e-05 0 0 0 0 0 0 
0 0 0 0 0 0 0 0 0 
0 0 0 0 0 -1.02697e-07 1.46531e-07 -2.34181e-06 1.41743e-06 
-2.26571e-06 0.000208019 2.59371e-05 -0.00044259 -2.82197e-05 -0.0003211 3.64203e-07 0 0 
0 0 0 0 0 0 0 0 0 
0 0 0 0 0 0 4.89021e-10 -3.26257e-07 -1.50569e-06 
-2.36573e-06 1.04698e-05 1.81108e-05 0.000140087 2.15993e-07 -0.00298516 -0.000304677 0.00346115 0.00418132 
0.00259758 0 0 0 0 0 0 0 0 
0 0 0 0 0 0 0 0 0 
0 6.7117e-07 6.10503e-07 5.89002e-07 -4.98087e-05 1.09296e-05 0.000364484 -0.000399965 0.00365374 
0.0025773 -0.00593338 0.0153166 -0.118172 -0.00951684 0 0 0 0 
0 0 0 0 0 0 0 0 0 
0 0 0 0 0 -1.11103e-06 -4.0736e-05 -1.30933e-06 0.00044127 
-0.00017786 3.16489e-05 0.000204952 -0.0464576 -0.0024635 0.196231 -0.0141573 -0.0909886 0 
0 0 0 0 0 0 0 0 0 
0 0 0 0 0 0 0 0 3.31457e-07 
-4.76314e-05 6.37122e-05 -0.000715024 -0.000128646 0.00760738 0.0104685 -0.0195125 0.22512 -0.00814143 
0.1036 -0.11538 -0.0556284 0 0 0 0 0 0 
0 0 0 0 0 0 0 0 0 
0 0 0 5.56612e-05 -0.000247609 -0.000269233 0.00258783 0.00376462 -0.0628085 
0.0323841 0.0217534 0.0103257 0.333325 0.15965 -0.0520062 8.36435e-05 0 0 
0 0 0 0 0 0 0 0 0 
0 0 0 0 0 0 0 -0.00131617 -0.00545697 
-0.00139201 -0.0445443 5.71013e-05 -0.00178762 -0.00652483 -0.0369992 0.0798049 0.248788 0.0052001 
0.0258717 0 0 0 0 0 0 0 0 
0 0 0 0 0 0 0 0 0 
0 -0.000397793 0.00621562 -0.0139508 0.00425391 -0.00539027 -0.010866 -0.0447144 0.00127015 
-0.102153 -0.0736708 -0.0947532 0.0105965 -0.00254594 0 0 0 0 
0 0 0 0 0 0 0 0 0 
0 0 0 0 0 2.57412e-05 -0.0125077 -0.0152557 -0.000981969 
0.00764011 0.0336902 -0.00534666 -0.0101561 -0.00872728 -0.0700148 -0.00577714 0.0245116 0.00237911 
0 0 0 0 0 0 0 0 0 
0 0 0 0 0 0 0 0 7.56718e-05 
0.0173524 -0.0166222 0.0073948 0.010479 0.00223344 -0.00880196 0.00681527 -0.0370599 -0.00296862 
-0.00490671 0.00475488 -0.00198992 0 0 0 0 0 0 
0 0 0 0 0 0 0 0 0 
0 0 0 -0.0109138 -0.00146107 -0.000617623 0.00527847 0.000294091 0.0193345 
-0.0108654 -3.06076e-05 0.00308167 0.00100192 0.000829314 -0.000159472 0.000442801 0 0 
0 0 0 0 0 0 0 0 0 
0 0 0 0 0 0 0 0.00134347 0.00311727 
-0.00139712 0.00956019 0.000587059 -0.000883118 0.000555751 -0.000689723 9.49245e-06 0.000492606 -8.29799e-05 
-0.000359689 -2.22477e-06 0 0 0 0 0 0 0 
0 0 0 0 0 0 0 0 0 
0 -5.04941e-05 -0.00261257 0.000684208 -2.38399e-06 -0.000789121 -0.000151934 -0.000374478 -8.86194e-06 
0.000261631 -1.9604e-05 -2.79694e-05 2.69743e-05 3.57236e-05 0 0 0 0 
0 0 0 0 0 0 0 0 0 
0 0 0 0 0 -0.000537188 -1.66945e-05 7.30915e-05 0.0002803 
-9.63243e-06 -0.000131498 3.60983e-05 -1.383e-05 -2.68259e-06 3.09358e-05 1.23147e-06 -1.26358e-05 0 
0 0 0 0 0 0 0 0 0 
0 0 0 0 0 0 0 0 0 
1.67414e-05 8.10417e-05 3.16009e-06 -6.91824e-05 4.32294e-06 4.56618e-06 1.93619e-06 7.4359e-06 1.93028e-07 
-6.4774e-07 0 0 0 0 0 0 0 0 
0 0 0 0 0 0 0 0 0 
0 0 0 -7.67251e-07 1.4591e-05 -2.50867e-06 9.20811e-06 -2.28742e-07 -6.80718e-06 
-1.12175e-06 4.01536e-07 0 0 0 0 0 0 0 
0 0 0 0 0 0 0 0 0 
0 0 0 0 5.46222e-10 5.50262e-09 2.43737e-09 -2.47955e-06 -7.50712e-06 
5.81631e-06 -2.42426e-05 -6.22038e-06 4.20709e-06 1.47947e-06 -1.0514e-06 -1.64965e-06 -1.88238e-07 -2.0963e-08 
0 0 0 0 0 0 0 0 0 
0 0 0 0 -5.21516e-13 -7.78108e-11 6.0564e-10 -4.9378e-09 -1.73078e-08 
1.6143e-07 -5.36292e-07 9.14898e-06 1.23646e-06 -0.000173846 1.24732e-05 -3.47958e-05 -3.55433e-06 -2.72433e-06 
2.4931e-05 -1.46026e-06 2.12536e-10 0 0 0 0 0 0 
0 0 0 0 0 0 0 1.01125e-09 9.44131e-11 
-1.5347e-08 -8.60702e-09 -6.18575e-07 8.42811e-07 -4.29906e-07 0.000251064 0.000223761 0.000488426 0.000907681 
4.21311e-05 7.4671e-05 -0.000287236 3.89119e-05 -4.45113e-06 2.81552e-06 0 0 0 
0 0 0 0 0 0 0 0 0 
0 1.04288e-08 2.20142e-08 -2.64627e-08 -5.20441e-07 -2.20786e-07 -7.88022e-06 3.50073e-06 -8.91733e-06 
-0.00367051 0.00117018 6.78588e-05 -0.00204345 0.000847881 -6.20321e-05 0.000452144 -0.000198523 3.09415e-06 
0 0 0 0 0 0 0 0 0 
0 0 0 0 -1.93993e-07 5.95606e-07 4.7169e-06 -6.06945e-06 3.8833e-07 
-1.74949e-05 -4.14981e-07 -0.00134423 -0.0149861 0.00744464 -0.0323159 -0.014377 -0.000197068 0.00752476 
0.00378425 0.000859112 -0.00115291 0 0 0 0 0 0 
0 0 0 0 0 0 0 -1.0345e-06 -1.57682e-06 
-9.52777e-06 8.51904e-05 -3.72805e-05 5.99565e-06 0.000347267 5.29956e-05 0.087013 0.197562 -0.0128287 
0.122172 -0.0255979 0.00729276 -0.100038 -0.015053 8.13071e-05 0 0 0 
0 0 0 0 0 0 0 0 0 
0 7.31581e-06 -3.44719e-05 4.13295e-06 -6.4938e-05 -0.000250266 -0.000665759 0.00627077 -0.0122547 
0.233354 -0.588503 -1.80354 0.551377 -0.453069 -0.381679 -0.726807 0.108798 0.0360843 
0 0 0 0 0 0 0 0 0 
0 0 0 0 -4.57486e-06 0.000150974 -8.47382e-05 0.000200996 0.000536307 
-0.00613126 -0.0735663 0.143699 1.45624 0.345816 -0.322683 3.28143 -4.37737 -0.225989 
-1.48069 -1.17431 -0.113339 0 0 0 0 0 0 
0 0 0 0 0 0 0 -1.81902e-05 -5.66805e-05 
-0.00134426 5.21471e-05 0.0355555 -0.115932 0.671 -2.92485 6.61357 7.89018 -8.16562 
3.49791 2.69691 -5.83319 -5.15968 -0.369247 -0.747798 0 0 0 
0 0 0 0 0 0 0 0 0 
0 0 -0.000418004 0.0147186 -0.0789722 0.132049 -0.00345625 0.20881 -0.667348 
63.905 190.406 108.436 150.332 43.3364 3.1771 1.66415 5.88557 0.384263 
0 0 0 0 0 0 0 0 0 
0 0 0 0 0 0 0 0 -2.89372e-06 
-2.40298e-07 -1.05489e-06 -4.10056e-08 0 0 0 0 0 0 
0 0 0 0 0 0 0 0 0 
0 0 0 0 0 0 0 0 0 
2.48974e-07 2.09164e-05 3.76806e-06 2.59608e-05 8.52332e-06 1.10101e-05 0 0 0 
0 0 0 0 0 0 0 0 0 
0 0 0 0 0 0 0 0 0 
0 0 3.87118e-05 8.79796e-06 -8.77591e-05 2.80409e-06 -7.29092e-05 3.58202e-05 -3.12444e-05 
6.28021e-05 0 0 0 0 0 0 0 0 
0 0 0 0 0 0 0 0 0 
0 0 0 -6.7917e-07 1.52288e-05 -3.76715e-06 -0.00030532 -2.30073e-06 0.00031684 
8.86374e-06 0.000131831 1.49529e-05 -0.00186139 0 0 0 0 0 
0 0 0 0 0 0 0 0 0 
0 0 0 0 0 -4.97892e-06 2.60177e-07 2.21027e-05 2.47844e-05 
0.000543925 -0.0010079 -0.000508947 0.0021004 -0.000536484 0.00134542 -0.00202572 -0.0113019 0 
0 0 0 0 0 0 0 0 0 
0 0 0 0 0 0 6.54011e-07 -2.77226e-06 1.7703e-06 
1.78742e-05 -3.00251e-06 5.07679e-05 1.3581e-05 -0.000166519 0.00350076 -0.0025485 -0.00365292 -0.0243689 
-0.017168 0.0193302 -0.00502744 0 0 0 0 0 0 
0 0 0 0 0 0 0 0 0 
-6.36317e-07 -1.58339e-06 -5.44182e-06 -7.50958e-05 -1.92743e-06 0.00035489 0.00229401 0.000921792 -0.0503485 
0.00118241 0.119565 0.0215143 0.205705 0.0100407 -0.00165878 0 0 0 
0 0 0 0 0 0 0 0 0 
0 0 0 0 4.95974e-05 -7.65236e-06 -9.61544e-06 -0.000142783 0.000764349 
0.00072943 -0.00902448 0.0616107 0.164769 -0.22055 -1.29947 0.599801 0.0841594 -0.0394615 
-0.0146425 0 0 0 0 0 0 0 0 
0 0 0 0 0 0 0 -1.17774e-05 -0.000129679 
-0.000469259 -0.000184132 0.00336914 -0.00107399 0.0250394 -0.0276727 -0.953009 -0.132031 -0.603532 
-0.326582 0.604829 0.101404 -0.0238075 1.6234e-05 0 0 0 0 
0 0 0 0 0 0 0 0 0 
0 0 0.000572098 0.000111418 0.00162535 -0.0101693 2.49104e-05 0.0772361 -0.548991 
-0.0945244 -0.0667805 -0.140721 -1.98972 0.182856 0.16973 -0.00624863 -0.0477248 0 
0 0 0 0 0 0 0 0 0 
0 0 0 0 0 0 0.000819133 -0.00617966 0.00189054 
0.179957 -0.128115 0.0112847 -0.0881142 -0.223014 1.10066 -1.91964 -0.43252 -0.0628575 
-0.0844023 0.00466197 -0.0299462 0 0 0 0 0 0 
0 0 0 0 0 0 0 0 0 
0.00367635 -0.0143796 0.0918189 0.014478 0.055026 -0.218756 -0.155443 -0.0610152 1.77611 
0.156717 0.654187 0.0886506 -0.050944 -0.00646269 -0.0242859 -0.000371758 0 0 
0 0 0 0 0 0 0 0 0 
0 0 0 0 -0.0320746 0.0125281 -0.00842977 0.312481 -0.113767 
-0.209083 0.261649 0.0338693 -0.119836 0.129254 0.231937 0.0197018 -0.136145 0.0113393 
0.00133667 0 0 0 0 0 0 0 0 
0 0 0 0 0 0 0 0 -0.0255941 
0.06458 0.00449666 -0.131841 -0.0192646 0.00175553 0.0518462 0.240919 -0.0280702 0.130314 
0.132141 -0.0935911 0.00432535 -0.00117357 -2.13533e-05 0 0 0 0 
0 0 0 0 0 0 0 0 0 
0 0 -0.0126558 -0.0366947 0.106637 -0.000239277 -0.00668913 -0.0341668 0.0957407 
-0.0039365 0.00393213 0.00689853 0.00562696 -0.00531743 0.00109883 -0.000375976 -1.5596e-05 3.77103e-07 
0 0 0 0 0 0 0 0 0 
0 0 0 0 0 0 -0.00644157 -0.00957784 -0.004319 
-0.0506192 0.00678728 -0.00958872 -0.0114624 -0.00588608 0.00122379 0.0024287 0.00379252 -0.00128961 
0.00133143 -2.41532e-05 -2.9957e-07 0 0 0 0 0 0 
0 0 0 0 0 0 0 0 0 
1.73086e-05 0.0136931 0.00323958 -0.00234914 0.000536502 0.00116183 -0.000205655 0.000979165 -0.000272929 
0.000733087 0.000198278 -0.000845758 -0.00038317 -7.98047e-05 -6.62569e-06 0 0 0 
0 0 0 0 0 0 0 0 0 
0 0 0 0 0.00270024 -0.000902718 0.00116265 0.00178017 -0.000157821 
-0.000441463 -0.000782037 3.54628e-06 0.000396057 -3.9383e-06 8.66338e-05 -2.33512e-06 7.26486e-05 0 
0 0 0 0 0 0 0 0 0 
0 0 0 0 0 0 0 0 -0.00289316 
-4.76005e-06 5.52578e-05 0.000128936 -8.10927e-05 -4.73183e-05 0.000114337 -4.8858e-05 -3.27232e-06 2.19534e-05 
-6.24798e-06 0 0 0 0 0 0 0 0 
0 0 0 0 0 0 0 0 0 
0 0 8.84447e-06 9.05058e-05 6.52346e-05 4.97378e-06 -5.53896e-05 3.04642e-07 -2.03477e-05 
1.35242e-06 1.4614e-05 0 0 0 0 0 0 0 
0 0 0 0 0 0 0 0 0 
0 0 0 0 0 2.5919e-08 -4.00586e-05 2.29464e-06 2.45098e-05 
3.32411e-07 1.87381e-05 1.5111e-05 -7.498e-07 -1.12853e-05 -8.8883e-06 -5.61668e-09 3.4143e-07 -3.53562e-08 
0 0 0 0 0 0 0 0 0 
0 0 0 0 0 0 -2.05381e-08 3.14245e-08 -7.09082e-08 
4.38492e-07 -6.03002e-06 -9.93906e-05 -0.000330307 -8.31945e-06 -0.000118775 -6.71848e-05 -6.75227e-06 6.6633e-05 
7.82573e-06 8.49352e-07 4.71758e-07 0 0 0 0 0 0 
0 0 0 0 0 0 0 5.36295e-08 -1.25668e-07 
-2.10794e-07 -9.48108e-08 7.86762e-08 1.59713e-07 7.52748e-05 -0.000168246 0.00045414 0.00100928 -0.000541149 
0.000140962 -6.28768e-05 0.000430545 -2.79551e-05 -5.66732e-06 4.03708e-06 0 0 0 
0 0 0 0 0 0 0 0 0 
0 -1.31548e-08 7.25694e-07 2.81461e-07 -1.45583e-06 -1.79748e-06 8.54984e-06 6.77865e-05 -0.000898544 
0.00937027 0.00437618 0.000366283 0.00510547 -0.000233059 -0.00108715 -0.00175064 2.84176e-05 -8.10757e-06 
0 0 0 0 0 0 0 0 0 
0 0 0 0 -5.55091e-07 1.14398e-06 1.083e-07 -1.85864e-05 0.000157146 
-9.50453e-06 -0.000735563 -0.0130006 -0.00183681 -0.0712813 -0.0183337 -0.00163344 -0.00177366 0.00105273 
0.000547975 -9.7748e-05 -0.000103499 0 0 0 0 0 0 
0 0 0 0 0 0 0 -5.02897e-07 1.78849e-06 
-2.68239e-05 -5.14714e-06 -0.000716422 0.00200541 0.00546988 0.0363093 0.0518108 -0.22873 0.131988 
-0.0489029 -0.0255671 -0.00531613 0.110714 -5.85557e-05 0.00031418 0 0 0 
0 0 0 0 0 0 0 0 0 
0 -3.41332e-06 -4.95483e-05 0.000472334 -0.000396562 -0.00215334 -0.0032225 -0.00347105 0.282093 
0.33631 1.21507 2.54386 0.0717383 1.10355 -0.770839 -0.00979091 -0.106618 0.0191323 
0 0 0 0 0 0 0 0 0 
0 0 0 0 5.0067e-05 1.64006e-05 -0.00237311 0.00614361 0.00960969 
-0.0282214 -0.000824694 -0.41721 -13.4431 -10.2419 0.0703479 -13.0919 2.21578 3.56956 
7.5586 1.23603 -0.0554422 0 0 0 0 0 0 
0 0 0 0 0 0 0 -0.000121117 0.000539154 
0.00443809 -0.0219395 0.00228508 -0.0660378 0.958167 3.73503 95.8526 132.011 37.645 
117.403 158.452 11.1816 -0.840434 4.40083 0.931881 0 0 0 
0 0 0 0 0 0 0 0 0 
0 5.59369e-05 -0.000996215 -0.00231346 0.0235203 0.138251 -0.929204 0.459492 27.5762 
336.045 559.59 242.926 419.864 270.531 169.497 27.3673 -10.5107 0.29758 
0 0 0 0 0 0 0 0 0 
0 0 0 0 0 0 0 0 1.2365e-05 
-6.73821e-07 7.44268e-05 -1.34831e-05 -3.61649e-05 0 0 0 0 0 
0 0 0 0 0 0 0 0 0 
0 0 0 0 0 0 0 0 0 
-5.87564e-06 -1.61126e-05 -4.27647e-05 -3.49937e-05 -3.42167e-05 -0.000205395 -0.000461917 6.77303e-05 0 
0 0 0 0 0 0 0 0 0 
0 0 0 0 0 0 0 0 0 
0 0 -0.000133736 -1.62897e-05 0.000375723 6.63512e-07 0.000569362 5.0432e-06 0.0008982 
0.00018279 0.000208944 0 0 0 0 0 0 0 
0 0 0 0 0 0 0 0 0 
0 0 0 -5.09688e-06 2.49802e-05 0.000482456 0.000282607 -0.00114202 -0.000505352 
-0.000890516 -0.000489127 0.000503397 0.008963 -0.0259633 -0.0162771 0 0 0 
0 0 0 0 0 0 0 0 0 
0 0 0 0 0 -7.35164e-06 1.42928e-06 0.000270629 2.84672e-05 
-0.00495406 0.000113712 0.00761312 -0.00133663 0.00886514 -0.00692447 0.0632545 0.0873842 -0.167981 
-0.0126007 0 0 0 0 0 0 0 0 
0 0 0 0 0 0 -3.22799e-06 3.87998e-07 -8.67244e-05 
3.88812e-05 -6.41572e-05 -0.000171421 0.00676664 0.000566636 -0.0121512 0.014604 8.00368e-05 0.0564839 
-0.0121261 0.17116 -0.0282201 -0.0664309 0 0 0 0 0 
0 0 0 0 0 0 0 0 0 
-4.74722e-07 0.000107873 0.000124357 0.000147337 -0.000163159 0.002926 0.0046338 -0.0458646 0.0355851 
-0.0237702 -0.276622 -0.110305 0.321024 -0.0604976 0.117101 -0.0515299 -0.00768559 0 
0 0 0 0 0 0 0 0 0 
0 0 0 -1.12092e-07 -6.51359e-05 -5.78937e-05 -0.00263459 -0.000260918 0.0034409 
0.0124198 -0.00126854 -0.379111 0.0554759 3.74576 1.67351 -0.74719 0.0435429 0.199035 
0.000327631 0.0256572 -0.000404746 0 0 0 0 0 0 
0 0 0 0 0 0 2.58133e-08 -4.37692e-05 0.000866887 
0.00114651 0.0036384 0.0100996 0.000644064 0.0615837 -0.121367 2.27131 3.77732 6.01597 
-0.795653 -1.41562 0.131082 -0.097634 0.0117585 -0.00116668 0 0 0 
0 0 0 0 0 0 0 0 0 
0 -5.18256e-06 0.000240809 0.00801408 -0.0298218 0.00325649 0.0930273 0.952021 -0.0908119 
3.47646 0.689685 4.88247 4.52223 -1.58501 -0.381779 0.182265 0.153148 -0.10901 
-0.0196715 0 0 0 0 0 0 0 0 
0 0 0 0 0 -0.00014273 -0.0032962 -0.067306 -0.00313798 
0.42343 -0.221871 0.942989 -1.08907 0.64604 1.05315 8.39367 0.144586 0.322913 
0.00151048 0.271802 0.0769501 -0.0845492 -0.000136027 0 0 0 0 
0 0 0 0 0 0 0 0 -2.80436e-05 
0.00378537 0.0133613 -0.159676 -0.481795 0.239769 0.990498 2.32806 -4.01694 -6.89551 
0.952083 -1.7302 0.323516 0.293957 0.072812 0.237831 0.00858216 0.0103033 0 
0 0 0 0 0 0 0 0 0 
0 0 0 -0.0193781 -0.0020065 0.081878 -0.207163 0.021481 0.14659 
-0.805214 -0.10806 -0.27463 1.02066 -2.17175 0.162629 0.0700087 0.180846 -0.00149173 
-0.0202524 0.00260577 2.58449e-05 0 0 0 0 0 0 
0 0 0 0 0 0 0 0.0169306 0.0429337 
0.108948 -1.01278 1.26462 0.120254 -0.0366705 -0.205941 -0.405657 -0.350998 -0.520323 
-0.125667 0.363627 -0.000908937 -0.00107639 1.96546e-06 -1.13886e-05 0 0 0 
0 0 0 0 0 0 0 0 0 
0 0.000498467 -0.0155116 0.137731 -0.133018 0.031539 -0.210235 -0.255242 -0.0925743 
-0.381744 0.0374652 -0.0334218 -0.153129 -0.0624067 -0.00240935 -0.000818982 -2.71696e-05 -6.20937e-06 
0 0 0 0 0 0 0 0 0 
0 0 0 0 0 0.00655962 0.000183424 -0.0599294 0.207725 
-0.0059353 0.167856 -0.0722082 0.00175262 0.0372513 0.0134181 0.0295052 -0.0256353 0.00929772 
-0.00136925 1.20414e-05 6.92957e-06 0 0 0 0 0 0 
0 0 0 0 0 0 0 0 0 
0.0173819 -0.0746932 -0.0144767 -0.0198661 0.0347504 -0.00141555 -0.00118599 -0.00967962 -0.000471433 
0.00292247 0.00517985 3.31404e-05 0.00123705 1.2194e-06 -5.44691e-06 0 0 0 
0 0 0 0 0 0 0 0 0 
0 0 0 0.00418587 0.0151019 0.00264727 -0.0295274 -0.00317974 5.70259e-06 
-0.00292644 0.000418606 0.00125493 0.0019286 7.83836e-06 -0.00270631 -7.12966e-05 -0.000135026 0 
0 0 0 0 0 0 0 0 0 
0 0 0 0 0 0 0 -0.00202731 0.00459726 
0.00315571 0.00372092 9.85854e-05 -0.000595887 -0.000581916 -5.93589e-05 0.000169717 -6.21486e-05 0.00030374 
3.25647e-05 0 0 0 0 0 0 0 0 
0 0 0 0 0 0 0 0 0 
0 0 0.000957605 -0.000773026 -3.08399e-05 -0.000117776 -9.16151e-06 1.21749e-06 0.000119516 
-2.83386e-05 3.84342e-05 0 0 0 0 0 0 0 
0 0 0 0 0 0 0 0 0 
0 0 0 0 0 -5.08854e-05 -0.00010048 -0.000188738 0.000115555 
5.34533e-05 2.27132e-05 -3.50183e-05 -9.18998e-06 -1.1075e-05 4.67777e-07 1.15238e-06 -1.11566e-08 -6.09527e-09 
0 0 0 0 0 0 0 0 0 
0 0 0 0 0 0 0 -1.66829e-07 -3.8197e-07 
5.85e-05 -6.90276e-05 -0.000217783 0.000233539 -0.000140844 -3.85516e-05 -8.62228e-06 5.41864e-05 -2.09267e-05 
4.75519e-06 9.39076e-08 1.43559e-07 0 0 0 0 0 0 
0 0 0 0 0 0 0 8.36962e-10 -2.11147e-08 
6.97274e-07 4.38768e-06 -1.98873e-05 7.33271e-06 -0.000626292 -0.000403568 -0.000364591 -0.00219692 -0.000180709 
-9.53118e-05 0.00095382 4.05263e-05 -4.19014e-06 -6.16863e-06 -2.84431e-08 0 0 0 
0 0 0 0 0 0 0 0 0 
0 -1.20742e-07 -1.62594e-06 2.59997e-06 -6.7821e-07 0.000138679 -0.000225847 0.000337839 0.0131119 
0.00584442 0.00316466 0.00837249 5.16633e-07 -0.00137516 -0.00342518 0.000116871 3.63072e-05 -1.09123e-05 
0 0 0 0 0 0 0 0 0 
0 0 0 0 3.39758e-06 7.07968e-06 -6.95258e-05 5.75941e-05 -2.63357e-05 
0.000472584 -0.000962466 0.0397875 -0.0611962 0.0323979 0.0363473 -0.00624471 -0.0170366 -0.0114723 
0.000551142 0.00134563 -3.38772e-05 0 0 0 0 0 0 
0 0 0 0 0 0 0 -1.88548e-05 1.90182e-05 
0.000280526 -0.000592007 -0.000108053 -0.00102059 0.0054586 -0.283999 -0.737747 0.0357142 -0.453425 
-0.308712 0.00268998 0.187818 0.0269261 -0.00155211 0.00443335 0 0 0 
0 0 0 0 0 0 0 0 0 
0 3.85341e-05 -0.000133905 -0.000311738 0.000443823 0.0021911 0.032561 -0.0483154 0.00107259 
3.89597 3.27041 0.00556174 2.25573 -0.0529241 1.03143 -0.470567 0.0805081 -0.0079023 
0 0 0 0 0 0 0 0 0 
0 0 0 0 -2.43652e-05 0.000163412 1.79286e-06 0.006432 -0.0420349 
-0.104216 0.920293 -3.23769 10.3687 -9.90613 -0.52043 36.0786 19.6585 -4.81581 
-4.65121 -0.0738099 -0.110673 0 0 0 0 0 0 
0 0 0 0 0 0 0 -1.60344e-06 3.20537e-05 
-0.00101637 -0.0153449 0.180895 -0.111899 -3.97084 38.6997 290.117 313.247 209.49 
386.646 322.801 66.9993 1.34705 -7.80553 -0.00743759 0 0 0 
0 0 0 0 0 0 0 0 0 
0 9.72193e-06 0.000315563 0.000360153 0.00772488 -0.402031 2.65091 -5.4906 94.5181 
621.994 745.457 528.755 664.845 656.433 515.045 249.592 19.2673 -1.25466 
0 0 0 0 0 0 0 0 0 
0 0 0 0 0 0 0 0 -3.23108e-06 
6.09238e-05 -0.000233332 -7.66863e-06 0.000372886 7.96417e-05 0.000123693 0 0 0 
0 0 0 0 0 0 0 0 0 
0 0 0 0 0 0 0 0 0 
1.18951e-05 1.41825e-06 0.000155651 -9.09213e-06 0.00129934 -0.000193378 -0.00182636 0.000229364 -0.00287236 
0 0 0 0 0 0 0 0 0 
0 0 0 0 0 0 0 0 0 
0 0 -3.95048e-05 0.000145964 -0.00077275 -2.86861e-05 -0.000617748 -0.000357026 -0.00855072 
-0.00179923 0.00977089 0.0131009 0.0155699 0 0 0 0 0 
0 0 0 0 0 0 0 0 0 
0 0 0 -5.98706e-06 0.0002112 -0.000987202 -0.000157547 0.00339948 0.0012024 
0.0072984 9.9656e-05 0.0178386 -0.00859771 0.0206239 -0.0165438 0.0374022 0.000153296 0 
0 0 0 0 0 0 0 0 0 
0 0 0 0 0 -0.000203714 3.52687e-05 0.00129999 0.0013719 
0.00148637 -0.00473693 -0.0154638 -0.00252223 -0.0128482 -0.0360959 -0.626287 0.207011 0.525826 
-0.0263435 -0.00234827 0 0 0 0 0 0 0 
0 0 0 0 0 0 1.26882e-07 4.59039e-05 0.000477528 
0.000209512 0.00256203 -0.00142619 -0.0425902 0.000254285 0.077725 -0.020361 0.0289158 0.0122458 
-0.534611 -1.0472 0.494234 0.19423 -0.00830585 0.000617653 0 0 0 
0 0 0 0 0 0 0 0 0 
3.30216e-06 -3.75618e-06 0.000202212 -0.00523377 -0.00620742 0.0066687 0.0429647 0.0692751 -0.0413103 
0.296227 0.36896 -1.41412 -0.158396 -0.746986 -0.149855 0.271248 0.0152835 -0.0801534 
-0.00515947 0 0 0 0 0 0 0 0 
0 0 0 1.09672e-05 -1.71183e-05 6.65056e-05 0.00289074 -0.00484755 0.0811044 
0.072801 -0.630161 -0.0819411 0.199358 -7.56122 3.73739 -2.31288 -0.168702 -0.512815 
-0.023823 -0.000917916 -0.0410488 -0.0363659 0 0 0 0 0 
0 0 0 0 0 0 0.00032988 0.000533284 -1.20438e-05 
0.00875889 -0.0281761 3.64736e-05 -0.143555 -0.115599 0.264619 -5.46004 -31.1599 -4.87419 
3.57045 1.95447 -0.159121 0.263354 -0.0878977 0.0336516 0.0103565 0.0102619 0 
0 0 0 0 0 0 0 0 0 
-0.00032135 0.000495745 -0.00220041 -0.000742269 -0.0297069 -0.701929 0.94766 -1.79244 -5.99797 
-8.81374 -3.54007 -20.3572 1.53639 6.02249 0.0610793 -0.466662 -0.0470625 0.272784 
0.000763995 0.0163105 0.00021033 0 0 0 0 0 0 
0 0 0 0 0.00118056 0.0065476 0.00157543 0.111016 -0.331918 
1.67157 -8.37251 4.17894 -2.07363 34.0902 -21.795 -15.6505 -0.396741 0.54857 
-0.678921 -1.6962 0.410575 0.0731951 0.000291731 -0.00152318 0 0 0 
0 0 0 0 0 0 0 0 0.0606269 
-0.0761215 -0.0184649 -0.673253 1.68894 -0.40621 -0.717465 -3.49439 34.4597 -0.539069 
-0.531019 1.95283 -2.46377 0.167998 -1.71679 -0.459027 -0.0531598 0.00223672 0.000190206 
0 0 0 0 0 0 0 0 0 
0 0 0.0601306 -0.00913836 0.186857 0.0755079 -0.0375308 2.6489 -6.97405 
-0.956725 23.7595 -3.30431 5.30797 5.41411 0.99268 -0.733723 0.0210509 0.169059 
0.00683523 -0.00803505 -1.46504e-05 0 0 0 0 0 0 
0 0 0 0 0 0 -0.0798761 0.0328639 -0.0390453 
-0.361173 0.975261 1.87582 -2.89654 -1.42763 -0.0587656 -3.42034 1.34775 2.17739 
-2.72334 -0.492525 0.0146019 0.00475747 6.15926e-07 0.000348918 0 0 0 
0 0 0 0 0 0 0 0 0 
-0.000911667 -0.0291442 -0.0469252 0.0224212 -0.0943647 -0.181155 0.641784 0.629967 2.73652 
-1.09005 0.0114547 3.63396 0.139076 0.316088 0.00139692 -0.00164918 -1.17928e-05 -8.31561e-05 
0 0 0 0 0 0 0 0 0 
0 0 0 0 0.00191048 0.00557922 -0.0455341 0.12045 0.0328102 
-1.1652 0.0924526 0.0394899 -0.160352 0.200742 -0.0376299 -0.37148 -0.0511904 -0.0218441 
-5.80682e-05 6.7922e-05 -1.1949e-06 0 0 0 0 0 0 
0 0 0 0 0 0 0 0 0.00253991 
-0.00802865 -0.0591474 0.454408 -0.203271 0.113369 -0.174992 -0.0391373 -0.00820495 0.0017757 
0.0791876 -0.0184933 0.0176907 -0.00146884 -2.62026e-05 3.08852e-06 0 0 0 
0 0 0 0 0 0 0 0 0 
0 0 -8.79907e-05 0.0111939 -0.0786523 0.0189513 -0.109508 0.184937 0.011426 
0.00396635 -0.0114612 0.00614817 0.00143772 -0.00369124 0.00147853 0.00029496 5.68503e-05 0 
0 0 0 0 0 0 0 0 0 
0 0 0 0 0 0 0.00290428 0.000295197 0.0230379 
-0.00500753 -0.0027357 0.00373789 -0.00732617 -3.83273e-06 0.00160206 0.0018315 0.000799418 -0.00284759 
9.34734e-05 0 0 0 0 0 0 0 0 
0 0 0 0 0 0 0 0 0 
0 -0.0043314 -0.000987235 -0.000586139 -0.00490696 0.000941649 -0.000432467 -2.83286e-05 -0.000334356 
-5.59579e-05 -5.7989e-05 0 0 0 0 0 0 0 
0 0 0 0 0 0 0 0 0 
0 0 0 0 0.000123855 -9.63593e-05 0.000694408 0.000376988 0.000448738 
0.000729248 -0.000163132 3.13346e-05 1.77991e-05 1.50005e-05 -2.33976e-07 -3.93934e-07 5.26245e-08 5.42272e-09 
0 0 0 0 0 0 0 0 0 
0 0 0 0 0 0 0 0 -9.44101e-06 
-2.621e-05 0.000114978 0.000572285 -4.11266e-05 0.000153643 0.000160619 1.75262e-06 -0.000174663 -2.15883e-05 
1.63344e-08 -1.36728e-06 3.66895e-07 0 0 0 0 0 0 
0 0 0 0 0 0 0 0 -1.99951e-08 
3.38786e-06 -7.17679e-07 1.15338e-06 -0.000267309 -0.000833011 -0.00180962 -0.00449951 0.000126013 -0.000262512 
0.000676786 -0.000407682 0.000174384 -2.80011e-05 -5.87689e-06 -1.94001e-06 0 0 0 
0 0 0 0 0 0 0 0 0 
0 2.49831e-06 -4.02437e-06 -1.32284e-05 -6.65815e-06 5.12041e-06 0.000124184 0.0134374 -0.0131354 
-0.00104966 0.00968091 -0.0133666 1.71933e-06 -0.000619267 0.00331856 -5.23034e-05 1.79212e-05 -2.5267e-05 
0 0 0 0 0 0 0 0 0 
0 0 0 0 -5.22519e-06 1.09164e-05 -7.53522e-06 0.000421928 -0.00108946 
-0.00230086 0.0142548 -0.0248951 0.199042 0.0304611 0.020019 -0.012437 -0.0261054 -0.00705761 
0.00249299 -2.07951e-05 1.90814e-05 0 0 0 0 0 0 
0 0 0 0 0 0 0 1.43396e-06 2.30733e-05 
-9.73062e-05 -0.00206449 0.0104035 0.00436934 -0.265332 -0.453429 -0.152295 -0.870866 -0.102096 
0.218298 0.452293 -0.0201048 -0.00182591 -0.00169069 -0.000763326 0 0 0 
0 0 0 0 0 0 0 0 0 
0 2.29974e-08 -7.7829e-05 0.000663135 0.00284107 -0.0357011 0.047788 0.279688 5.33403 
0.139109 1.27591 3.94504 -1.66301 -2.76907 -0.11984 0.0882009 -0.0561805 -0.00335332 
0 0 0 0 0 0 0 0 0 
0 0 0 0 -1.00699e-05 -8.86527e-06 -0.000870923 0.00110584 0.0432282 
-0.0814421 0.345477 -15.8161 -20.7563 16.6663 -24.3268 8.01368 16.8184 -10.1516 
0.590662 -0.121119 0.142508 0 0 0 0 0 0 
0 0 0 0 0 0 0 6.31808e-05 7.89043e-05 
-0.00106731 -0.00127363 -0.00611673 -0.224979 1.00018 31.8454 247.289 351.791 225.304 
382.463 376.266 241.856 89.7234 0.164792 0.609903 0 0 0 
0 0 0 0 0 0 0 0 0 
0 -2.76738e-05 0.000195264 0.00204355 -0.000720267 -0.00290563 0.630823 -11.9344 118.298 
573.529 705.285 669.493 684.838 685.91 659.504 413.039 75.7511 -1.68613 
0 0 0 0 0 0 0 0 0 
0 0 0 0 0 0 0 0 -0.000157285 
-0.000592429 -3.55889e-05 0.000360004 0.000521284 -0.000256929 0.000288943 -7.64148e-05 0 0 
0 0 0 0 0 0 0 0 0 
0 0 0 0 0 0 0 0 0 
-4.67098e-05 0.000452241 8.05241e-05 0.00308998 -0.00411744 -0.0016451 0.0086965 -0.00320594 0.00774316 
-0.000294173 -0.000162186 0 0 0 0 0 0 0 
0 0 0 0 0 0 0 0 0 
0 0 -0.000209239 -0.000525082 0.00143679 6.69184e-05 -0.00238445 0.0100746 0.00514717 
-0.0215126 -0.011432 -0.0591469 -0.0170438 0.000883297 0.000187469 0 0 0 
0 0 0 0 0 0 0 0 0 
0 0 0 -0.000256377 -0.00419147 0.00191457 0.00206011 -0.0141969 0.00313338 
-0.00262116 0.00894552 -0.167302 -0.00704243 0.33045 -0.106442 -0.104459 -0.00962242 0.0062919 
0 0 0 0 0 0 0 0 0 
0 0 0 0 0 0.000307906 0.000116752 0.016931 -0.00586793 
-0.00761665 0.016202 0.0599083 0.0489983 -0.0538257 1.01076 1.60554 -1.18345 -0.370119 
-0.00996235 -0.0127707 0.0246836 0.000349336 0 0 0 0 0 
0 0 0 0 0 0 5.55158e-05 -5.30035e-05 2.46635e-05 
-0.00367745 -0.00695279 -0.0367746 0.0963024 0.00127434 -0.290414 0.0919472 -0.54062 0.719497 
7.78914 0.980709 -2.00337 -0.0586521 -0.139324 0.000434514 -0.0214027 0.000301899 0 
0 0 0 0 0 0 0 0 0 
-1.78342e-05 -0.000716323 -3.08374e-05 0.00132515 -0.0371618 0.151113 -0.55755 -0.158029 0.440527 